version 3
run General-0-20220618-19:23:54-54902
attr configname General
attr datetime 20220618-19:23:54
attr datetimef 20220618-192354
attr experiment General
attr inifile omnetpp.ini
attr iterationvars ""
attr iterationvarsd ""
attr iterationvarsf ""
attr measurement ""
attr network Network
attr processid 54902
attr repetition 0
attr replication #0
attr resultdir results
attr runnumber 0
attr seedset 0
config network Network
config sim-time-limit 200s
config Network.node[{0,1,2,3,4,6,7,8}].app.interArrivalTime exponential(2)
config Network.node[{0,1,2,3,4,6,7,8}].app.packetByteSize 125000
config Network.node[{0,1,2,3,4,6,7,8}].app.destination 5

vector 0 Network.node[7].lnk[1] "Buffer Size" ETV
vector 1 Network.node[6].lnk[0] "Buffer Size" ETV
vector 2 Network.node[6].lnk[1] "Buffer Size" ETV
vector 3 Network.node[0].lnk[1] "Buffer Size" ETV
vector 4 Network.node[4].lnk[1] "Buffer Size" ETV
vector 5 Network.node[5].net hopCount ETV
vector 6 Network.node[5].app Delay ETV
vector 7 Network.node[1].lnk[1] "Buffer Size" ETV
vector 8 Network.node[4].lnk[0] "Buffer Size" ETV
vector 9 Network.node[2].lnk[1] "Buffer Size" ETV
vector 10 Network.node[1].lnk[0] "Buffer Size" ETV
vector 11 Network.node[3].lnk[1] "Buffer Size" ETV
vector 12 Network.node[2].lnk[0] "Buffer Size" ETV
vector 13 Network.node[3].lnk[0] "Buffer Size" ETV
vector 14 Network.node[0].lnk[0] "Buffer Size" ETV
vector 15 Network.node[7].lnk[0] "Buffer Size" ETV
0	3	0.706318278275	1
0	4	0.706318278275	0
0	32	2.087125665629	1
0	33	2.087125665629	0
0	324	8.716950225486	1
0	325	8.716950225486	0
0	416	10.349875294046	1
0	417	10.349875294046	0
0	615	14.56996929108	1
0	616	14.56996929108	0
0	657	15.322521833915	1
0	666	15.56996929108	0
0	745	16.798176417427	1
0	746	16.798176417427	0
0	1144	24.427205986427	1
0	1145	24.427205986427	0
0	1710	34.368391295687	1
0	1711	34.368391295687	0
0	1760	35.352762134117	1
0	1761	35.368391295687	0
0	1937	38.992399972686	1
0	1938	38.992399972686	0
0	2020	40.457424932239	1
0	2021	40.457424932239	0
0	2080	41.657318705521	1
0	2081	41.657318705521	0
0	2136	42.657318705521	1
0	2137	42.657318705521	0
0	2170	43.106057703657	1
0	2196	43.657318705521	0
0	2198	43.657318705521	1
0	2259	44.657318705521	0
0	2261	44.657318705521	1
0	2323	45.657318705521	0
0	2325	45.657318705521	1
0	2386	46.657318705521	0
0	2421	47.111999820695	1
0	2444	47.657318705521	0
0	2716	52.616509712758	1
0	2717	52.616509712758	0
0	2886	55.470583281595	1
0	2887	55.470583281595	0
0	2955	56.707102491943	1
0	2956	56.707102491943	0
0	2959	56.723318703081	1
0	3018	57.707102491943	0
0	3065	58.440104638739	1
0	3070	58.707102491943	0
0	3093	58.944944624521	1
0	3133	59.707102491943	0
0	3344	63.257388847373	1
0	3345	63.257388847373	0
0	3505	66.171025964501	1
0	3506	66.171025964501	0
0	3562	67.171025964501	1
0	3563	67.171025964501	0
0	3729	70.23213774943	1
0	3730	70.23213774943	0
0	3977	74.679131914946	1
0	3978	74.679131914946	0
0	4214	78.655959317888	1
0	4215	78.655959317888	0
0	4269	79.37547082946	1
0	4270	79.655959317888	0
0	4371	81.518756375	1
0	4372	81.518756375	0
0	4457	82.706903371648	1
0	4458	82.706903371648	0
0	4492	83.204679709187	1
0	4510	83.706903371648	0
0	4917	91.639649802337	1
0	4918	91.639649802337	0
0	4926	91.749440622867	1
0	4969	92.639649802337	0
0	5105	95.20261467153	1
0	5106	95.20261467153	0
0	5424	100.971838175735	1
0	5425	100.971838175735	0
0	5600	104.174165769459	1
0	5601	104.174165769459	0
0	5642	104.828659562959	1
0	5662	105.174165769459	0
0	5664	105.174165769459	1
0	5719	106.174165769459	0
0	5862	108.823003497939	1
0	5863	108.823003497939	0
0	5988	111.042091716361	1
0	5989	111.042091716361	0
0	6189	114.475767686131	1
0	6190	114.475767686131	0
0	6376	118.071049077434	1
0	6377	118.071049077434	0
0	6496	120.331760169255	1
0	6497	120.331760169255	0
0	6523	120.820742213341	1
0	6550	121.331760169255	0
0	6632	122.745868917828	1
0	6633	122.745868917828	0
0	6783	125.586635828998	1
0	6784	125.586635828998	0
0	6794	125.738831712516	1
0	6797	125.738942416306	2
0	6835	126.586635828998	1
0	6837	126.586635828998	2
0	6888	127.586635828998	1
0	6950	128.586635828998	0
0	7041	129.928068559041	1
0	7042	129.928068559041	0
0	7209	132.840198042865	1
0	7210	132.840198042865	0
0	7330	135.053512076386	1
0	7331	135.053512076386	0
0	7403	136.234982440259	1
0	7404	136.234982440259	0
0	7500	138.002553752325	1
0	7501	138.002553752325	0
0	7505	138.140506849477	1
0	7555	138.934236048888	2
0	7560	139.002553752325	1
0	7622	140.002553752325	0
0	7659	140.63749302842	1
0	7689	141.002553752325	0
0	7726	141.457861395863	1
0	7755	142.002553752325	0
0	7890	144.356970948718	1
0	7891	144.356970948718	0
0	7927	144.86509821767	1
0	7951	145.356970948718	0
0	7989	145.86509821767	1
0	7996	146.113401106155	2
0	8012	146.356970948718	1
0	8046	146.804440273572	2
0	8095	147.356970948718	1
0	8126	147.805948316489	2
0	8147	148.356970948718	1
0	8204	149.356970948718	0
0	8282	150.729605037218	1
0	8283	150.729605037218	0
0	8467	154.133754637527	1
0	8468	154.133754637527	0
0	8677	158.882686411963	1
0	8678	158.882686411963	0
0	8855	162.54917461937	1
0	8856	162.54917461937	0
0	9108	167.489432782929	1
0	9109	167.489432782929	0
0	9132	167.783882857555	1
0	9165	168.489432782929	0
0	9193	168.901898197537	1
0	9227	169.489432782929	0
0	9275	170.333988833524	1
0	9280	170.489432782929	0
0	9306	170.920569055816	1
0	9327	171.489432782929	0
0	9613	177.194767134919	1
0	9614	177.194767134919	0
0	9627	177.479018157704	1
0	9659	177.859209246713	2
0	9685	178.194767134919	1
0	9719	178.859209246713	2
0	9739	179.194767134919	1
0	9805	180.194767134919	0
0	9974	183.313635481492	1
0	9975	183.313635481492	0
0	9981	183.588737715718	1
0	10037	184.313635481492	0
0	10159	186.185628986927	1
0	10160	186.185628986927	0
0	10385	189.82097191066	1
0	10386	189.82097191066	0
0	10438	190.82097191066	1
0	10439	190.82097191066	0
0	10468	191.180224660526	1
0	10508	191.82097191066	0
0	10543	192.374625166988	1
0	10570	192.82097191066	0
0	10607	193.300244317824	1
0	10643	193.82097191066	0
0	10885	198.135004388505	1
0	10886	198.135004388505	0
0	10904	198.486302439635	1
0	10936	199.135004388505	0
1	7	0.970256327443	1
1	8	0.970256327443	0
1	181	6.153467122348	1
1	182	6.153467122348	0
1	244	7.153467122348	1
1	245	7.153467122348	0
1	288	8.019311932816	1
1	307	8.153467122348	0
1	309	8.153467122348	1
1	360	9.153467122348	0
1	362	9.153467122348	1
1	405	10.153467122348	0
1	407	10.153467122348	1
1	454	11.153467122348	0
1	456	11.153467122348	1
1	498	12.0999404487	2
1	501	12.153467122348	1
1	503	12.153467122348	2
1	542	13.153467122348	1
1	544	13.153467122348	2
1	602	14.153467122348	1
1	604	14.153467122348	2
1	646	15.153467122348	1
1	648	15.153467122348	2
1	673	15.612733039778	3
1	703	16.153467122348	2
1	705	16.153467122348	3
1	730	16.683864480234	4
1	768	17.153467122348	3
1	770	17.153467122348	4
1	826	18.153467122348	3
1	828	18.153467122348	4
1	880	19.153467122348	3
1	882	19.153467122348	4
1	888	19.354444849482	5
1	938	20.153467122348	4
1	940	20.153467122348	5
1	989	21.153467122348	4
1	991	21.153467122348	5
1	1042	22.153467122348	4
1	1044	22.153467122348	5
1	1088	23.153467122348	4
1	1090	23.153467122348	5
1	1128	24.153467122348	4
1	1130	24.153467122348	5
1	1181	25.110274892037	6
1	1184	25.153467122348	5
1	1186	25.153467122348	6
1	1241	26.153467122348	5
1	1243	26.153467122348	6
1	1292	26.98239801158	7
1	1298	27.153467122348	6
1	1300	27.153467122348	7
1	1354	28.153467122348	6
1	1356	28.153467122348	7
1	1410	29.153467122348	6
1	1412	29.153467122348	7
1	1464	30.153467122348	6
1	1466	30.153467122348	7
1	1518	31.153467122348	6
1	1520	31.153467122348	7
1	1578	32.153467122348	6
1	1580	32.153467122348	7
1	1629	33.153467122348	6
1	1631	33.153467122348	7
1	1685	34.153467122348	6
1	1687	34.153467122348	7
1	1740	35.153467122348	6
1	1742	35.153467122348	7
1	1791	36.153467122348	6
1	1793	36.153467122348	7
1	1846	37.153467122348	6
1	1848	37.153467122348	7
1	1897	38.153467122348	6
1	1899	38.153467122348	7
1	1945	39.153467122348	6
1	1947	39.153467122348	7
1	1961	39.342671079391	8
1	2000	40.153467122348	7
1	2002	40.153467122348	8
1	2028	40.697598961813	9
1	2059	41.153467122348	8
1	2061	41.153467122348	9
1	2114	42.153467122348	8
1	2116	42.153467122348	9
1	2176	43.153467122348	8
1	2178	43.153467122348	9
1	2236	44.153467122348	8
1	2238	44.153467122348	9
1	2303	45.153467122348	8
1	2305	45.153467122348	9
1	2361	46.153467122348	8
1	2363	46.153467122348	9
1	2424	47.153467122348	8
1	2426	47.153467122348	9
1	2486	48.153467122348	8
1	2488	48.153467122348	9
1	2545	49.153263396401	10
1	2548	49.153467122348	9
1	2550	49.153467122348	10
1	2588	49.803944227459	11
1	2591	49.822745728787	12
1	2602	50.153467122348	11
1	2604	50.153467122348	12
1	2658	51.153467122348	11
1	2660	51.153467122348	12
1	2698	52.024437548969	13
1	2701	52.153467122348	12
1	2703	52.153467122348	13
1	2750	53.153467122348	12
1	2752	53.153467122348	13
1	2813	54.153467122348	12
1	2815	54.153467122348	13
1	2869	55.153467122348	12
1	2871	55.153467122348	13
1	2924	56.153467122348	12
1	2926	56.153467122348	13
1	2978	57.153467122348	12
1	2980	57.153467122348	13
1	3041	58.153467122348	12
1	3043	58.153467122348	13
1	3103	59.153467122348	12
1	3105	59.153467122348	13
1	3160	60.153467122348	12
1	3162	60.153467122348	13
1	3216	61.153467122348	12
1	3218	61.153467122348	13
1	3270	62.153467122348	12
1	3272	62.153467122348	13
1	3322	63.153467122348	12
1	3324	63.153467122348	13
1	3375	64.153467122348	12
1	3377	64.153467122348	13
1	3438	65.153467122348	12
1	3440	65.153467122348	13
1	3496	66.153467122348	12
1	3498	66.153467122348	13
1	3552	67.153467122348	12
1	3554	67.153467122348	13
1	3603	68.153467122348	12
1	3605	68.153467122348	13
1	3657	69.153467122348	12
1	3659	69.153467122348	13
1	3708	70.153467122348	12
1	3710	70.153467122348	13
1	3772	71.153467122348	12
1	3774	71.153467122348	13
1	3825	72.153467122348	12
1	3827	72.153467122348	13
1	3860	72.651144555417	14
1	3894	73.153467122348	13
1	3896	73.153467122348	14
1	3946	74.153467122348	13
1	3948	74.153467122348	14
1	3974	74.575894666959	15
1	4013	75.153467122348	14
1	4015	75.153467122348	15
1	4073	76.153467122348	14
1	4075	76.153467122348	15
1	4085	76.263671612141	16
1	4131	77.153467122348	15
1	4133	77.153467122348	16
1	4198	78.153467122348	15
1	4200	78.153467122348	16
1	4242	78.978502655907	17
1	4256	79.153467122348	16
1	4258	79.153467122348	17
1	4305	80.153467122348	16
1	4307	80.153467122348	17
1	4355	81.153467122348	16
1	4357	81.153467122348	17
1	4424	82.153467122348	16
1	4426	82.153467122348	17
1	4484	83.153467122348	16
1	4486	83.153467122348	17
1	4536	84.153467122348	16
1	4538	84.153467122348	17
1	4593	85.153467122348	16
1	4595	85.153467122348	17
1	4637	86.153467122348	16
1	4639	86.153467122348	17
1	4678	86.745367631815	18
1	4697	87.153467122348	17
1	4699	87.153467122348	18
1	4750	88.153467122348	17
1	4752	88.153467122348	18
1	4796	89.153467122348	17
1	4798	89.153467122348	18
1	4848	90.153467122348	17
1	4850	90.153467122348	18
1	4898	91.153467122348	17
1	4900	91.153467122348	18
1	4945	92.153467122348	17
1	4947	92.153467122348	18
1	4998	93.153467122348	17
1	5000	93.153467122348	18
1	5014	93.310009030492	19
1	5047	94.153467122348	18
1	5049	94.153467122348	19
1	5096	95.153467122348	18
1	5098	95.153467122348	19
1	5150	96.153467122348	18
1	5152	96.153467122348	19
1	5202	97.153467122348	18
1	5204	97.153467122348	19
1	5253	98.153467122348	18
1	5255	98.153467122348	19
1	5320	99.153467122348	18
1	5322	99.153467122348	19
1	5378	100.153467122348	18
1	5380	100.153467122348	19
1	5428	101.153467122348	18
1	5430	101.153467122348	19
1	5466	101.787666230384	20
1	5491	102.153467122348	19
1	5493	102.153467122348	20
1	5536	103.153467122348	19
1	5538	103.153467122348	20
1	5591	104.153467122348	19
1	5593	104.153467122348	20
1	5654	105.153467122348	19
1	5656	105.153467122348	20
1	5713	106.153467122348	19
1	5715	106.153467122348	20
1	5768	107.153467122348	19
1	5770	107.153467122348	20
1	5821	108.153467122348	19
1	5823	108.153467122348	20
1	5876	109.153467122348	19
1	5878	109.153467122348	20
1	5943	110.153467122348	19
1	5945	110.153467122348	20
1	5992	111.153467122348	19
1	5994	111.153467122348	20
1	6047	112.153467122348	19
1	6049	112.153467122348	20
1	6107	113.153467122348	19
1	6109	113.153467122348	20
1	6164	114.153467122348	19
1	6166	114.153467122348	20
1	6216	115.153467122348	19
1	6218	115.153467122348	20
1	6277	116.153467122348	19
1	6279	116.153467122348	20
1	6328	117.153467122348	19
1	6330	117.153467122348	20
1	6361	117.733007875194	21
1	6383	118.153467122348	20
1	6385	118.153467122348	21
1	6429	118.942170311864	22
1	6437	119.153467122348	21
1	6439	119.153467122348	22
1	6484	120.153467122348	21
1	6486	120.153467122348	22
1	6537	121.153467122348	21
1	6539	121.153467122348	22
1	6561	121.450576852046	23
1	6601	122.153467122348	22
1	6603	122.153467122348	23
1	6659	123.153467122348	22
1	6661	123.153467122348	23
1	6715	124.153467122348	22
1	6717	124.153467122348	23
1	6760	125.153467122348	22
1	6762	125.153467122348	23
1	6819	126.153467122348	22
1	6821	126.153467122348	23
1	6870	127.153467122348	22
1	6872	127.153467122348	23
1	6928	128.153467122348	22
1	6930	128.153467122348	23
1	6985	129.153467122348	22
1	6987	129.153467122348	23
1	7045	130.153467122348	22
1	7047	130.153467122348	23
1	7107	131.153467122348	22
1	7109	131.153467122348	23
1	7123	131.254195125892	24
1	7165	132.153467122348	23
1	7167	132.153467122348	24
1	7193	132.592956745908	25
1	7217	133.153467122348	24
1	7219	133.153467122348	25
1	7279	134.153467122348	24
1	7281	134.153467122348	25
1	7298	134.518462113156	26
1	7334	135.153467122348	25
1	7336	135.153467122348	26
1	7387	136.153467122348	25
1	7389	136.153467122348	26
1	7445	137.153467122348	25
1	7447	137.153467122348	26
1	7465	137.390472029324	27
1	7508	138.153467122348	26
1	7510	138.153467122348	27
1	7569	139.153467122348	26
1	7571	139.153467122348	27
1	7631	140.153467122348	26
1	7633	140.153467122348	27
1	7698	141.153467122348	26
1	7700	141.153467122348	27
1	7713	141.304149509712	28
1	7764	142.153467122348	27
1	7766	142.153467122348	28
1	7819	143.153467122348	27
1	7821	143.153467122348	28
1	7874	144.153467122348	27
1	7876	144.153467122348	28
1	7937	145.153467122348	27
1	7939	145.153467122348	28
1	8002	146.153467122348	27
1	8004	146.153467122348	28
1	8079	147.153467122348	27
1	8081	147.153467122348	28
1	8137	148.153467122348	27
1	8139	148.153467122348	28
1	8188	149.067685274866	29
1	8191	149.153467122348	28
1	8193	149.153467122348	29
1	8246	150.153467122348	28
1	8248	150.153467122348	29
1	8311	151.153467122348	28
1	8313	151.153467122348	29
1	8326	151.495266127132	30
1	8365	152.153467122348	29
1	8367	152.153467122348	30
1	8421	153.153467122348	29
1	8423	153.153467122348	30
1	8471	154.153467122348	29
1	8473	154.153467122348	30
1	8524	155.153467122348	29
1	8526	155.153467122348	30
1	8564	156.153467122348	29
1	8566	156.153467122348	30
1	8613	157.153467122348	29
1	8615	157.153467122348	30
1	8649	158.153467122348	29
1	8651	158.153467122348	30
1	8688	159.083313693308	31
1	8691	159.153467122348	30
1	8693	159.153467122348	31
1	8735	160.153467122348	30
1	8737	160.153467122348	31
1	8788	161.153467122348	30
1	8790	161.153467122348	31
1	8810	161.575725109027	32
1	8842	162.153467122348	31
1	8844	162.153467122348	32
1	8890	163.153467122348	31
1	8892	163.153467122348	32
1	8939	164.153467122348	31
1	8941	164.153467122348	32
1	8986	165.153467122348	31
1	8988	165.153467122348	32
1	9030	166.153467122348	31
1	9032	166.153467122348	32
1	9084	167.153467122348	31
1	9086	167.153467122348	32
1	9142	168.153467122348	31
1	9144	168.153467122348	32
1	9190	168.895039770557	33
1	9206	169.153467122348	32
1	9208	169.153467122348	33
1	9263	170.153467122348	32
1	9265	170.153467122348	33
1	9313	171.153467122348	32
1	9315	171.153467122348	33
1	9363	172.153467122348	32
1	9365	172.153467122348	33
1	9414	173.153467122348	32
1	9416	173.153467122348	33
1	9450	173.884249738034	34
1	9460	174.153467122348	33
1	9462	174.153467122348	34
1	9503	175.153467122348	33
1	9505	175.153467122348	34
1	9553	176.153467122348	33
1	9555	176.153467122348	34
1	9605	177.153467122348	33
1	9607	177.153467122348	34
1	9624	177.387650174984	35
1	9679	178.153467122348	34
1	9681	178.153467122348	35
1	9733	179.153467122348	34
1	9735	179.153467122348	35
1	9793	180.083760637678	36
1	9799	180.153467122348	35
1	9801	180.153467122348	36
1	9847	181.153467122348	35
1	9849	181.153467122348	36
1	9903	182.153467122348	35
1	9905	182.153467122348	36
1	9958	183.153467122348	35
1	9960	183.153467122348	36
1	10027	184.153467122348	35
1	10029	184.153467122348	36
1	10090	185.103273664018	37
1	10093	185.153467122348	36
1	10095	185.153467122348	37
1	10151	186.153467122348	36
1	10153	186.153467122348	37
1	10173	186.44187940799	38
1	10208	187.153467122348	37
1	10210	187.153467122348	38
1	10272	188.153467122348	37
1	10274	188.153467122348	38
1	10342	189.153467122348	37
1	10344	189.153467122348	38
1	10397	190.153467122348	37
1	10399	190.153467122348	38
1	10460	191.153467122348	37
1	10462	191.153467122348	38
1	10527	192.153467122348	37
1	10529	192.153467122348	38
1	10588	193.153467122348	37
1	10590	193.153467122348	38
1	10657	194.153467122348	37
1	10659	194.153467122348	38
1	10711	195.153467122348	37
1	10713	195.153467122348	38
1	10763	196.153467122348	37
1	10765	196.153467122348	38
1	10803	196.752312296708	39
1	10831	197.153467122348	38
1	10833	197.153467122348	39
1	10889	198.153467122348	38
1	10891	198.153467122348	39
1	10942	199.153467122348	38
1	10944	199.153467122348	39
1	10950	199.209394576711	40
2	11	1.087025665629	1
2	12	1.087025665629	0
2	267	7.716850225486	1
2	268	7.716850225486	0
2	565	13.56986929108	1
2	566	13.56986929108	0
2	1656	33.368291295687	1
2	1657	33.368291295687	0
2	1971	39.457324932239	1
2	1972	39.457324932239	0
2	2024	40.657218705521	1
2	2025	40.657218705521	0
2	2043	40.77755155993	1
2	2077	41.657218705521	0
2	2107	41.943308337664	1
2	2132	42.657218705521	0
2	2156	42.834147261504	1
2	2194	43.657218705521	0
2	2233	44.145439830231	1
2	2257	44.657218705521	0
2	2894	55.707002491943	1
2	2895	55.707002491943	0
2	3291	62.257288847373	1
2	3292	62.257288847373	0
2	3446	65.170925964501	1
2	3447	65.170925964501	0
2	3482	65.922403649315	1
2	3502	66.170925964501	0
2	4210	78.37537082946	1
2	4211	78.37537082946	0
2	4317	80.518656375	1
2	4318	80.518656375	0
2	4391	81.706803371648	1
2	4392	81.706803371648	0
2	4870	90.749340622867	1
2	4871	90.749340622867	0
2	5055	94.20251467153	1
2	5056	94.20251467153	0
2	5374	99.971738175735	1
2	5375	99.971738175735	0
2	5544	103.174065769459	1
2	5545	103.174065769459	0
2	5565	103.717401910144	1
2	5597	104.174065769459	0
2	6130	113.475667686131	1
2	6131	113.475667686131	0
2	6574	121.745768917828	1
2	6575	121.745768917828	0
2	6735	124.586535828998	1
2	6736	124.586535828998	0
2	6772	125.371681885373	1
2	6780	125.586535828998	0
2	6981	128.927968559041	1
2	6982	128.927968559041	0
2	7146	131.840098042865	1
2	7147	131.840098042865	0
2	7272	134.053412076386	1
2	7273	134.053412076386	0
2	7441	137.140406849477	1
2	7442	137.140406849477	0
2	7596	139.63739302842	1
2	7597	139.63739302842	0
2	7860	143.86499821767	1
2	7861	143.86499821767	0
2	7868	144.039215384187	1
2	7924	144.86499821767	0
2	8049	146.805848316489	1
2	8050	146.805848316489	0
2	8226	149.729505037218	1
2	8227	149.729505037218	0
2	8806	161.54907461937	1
2	8807	161.54907461937	0
2	9255	169.920469055816	1
2	9256	169.920469055816	0
2	9594	176.859109246713	1
2	9595	176.859109246713	0
2	9630	177.497464920086	1
2	9656	177.859109246713	0
2	9915	182.313535481492	1
2	9916	182.313535481492	0
2	10330	188.82087191066	1
2	10331	188.82087191066	0
2	10358	189.28371385457	1
2	10382	189.82087191066	0
2	10539	192.300144317824	1
2	10540	192.300144317824	0
2	10827	197.134904388505	1
2	10828	197.134904388505	0
2	10960	199.557784897459	1
2	10961	199.557784897459	0
2	10984	199.868356068469	1
3	16	1.706418278275	1
3	17	1.706418278275	0
3	20	1.797120776968	1
3	36	2.433833058652	2
3	37	2.706418278275	1
3	53	3.087225665629	2
3	54	3.706418278275	1
3	70	3.732725755154	2
3	84	4.706418278275	1
3	127	5.23807398178	2
3	131	5.706418278275	1
3	192	6.706418278275	0
3	373	9.717050225486	1
3	374	9.717050225486	0
3	463	11.349975294046	1
3	464	11.349975294046	0
3	669	15.57006929108	1
3	670	15.57006929108	0
3	720	16.57006929108	1
3	721	16.57006929108	0
3	802	17.774252987134	1
3	803	17.774252987134	0
3	807	17.798276417427	1
3	841	18.557794608487	2
3	857	18.774252987134	1
3	872	19.060678472637	2
3	908	19.774252987134	1
3	925	20.037792571253	2
3	970	20.774252987134	1
3	1022	21.774252987134	0
3	1198	25.427305986427	1
3	1199	25.427305986427	0
3	1228	25.846695215178	1
3	1259	26.427305986427	0
3	1327	27.535550802233	1
3	1328	27.535550802233	0
3	1764	35.368491295687	1
3	1765	35.368491295687	0
3	1819	36.368491295687	1
3	1820	36.368491295687	0
3	1941	39.076181631121	1
3	1942	39.076181631121	0
3	1992	39.992499972686	1
3	1993	40.076181631121	0
3	2075	41.457524932239	1
3	2076	41.457524932239	0
3	2140	42.657418705521	1
3	2141	42.657418705521	0
3	2202	43.657418705521	1
3	2203	43.657418705521	0
3	2265	44.657418705521	1
3	2266	44.657418705521	0
3	2329	45.657418705521	1
3	2330	45.657418705521	0
3	2382	46.600036200129	1
3	2388	46.657418705521	0
3	2390	46.657418705521	1
3	2446	47.657418705521	0
3	2448	47.657418705521	1
3	2501	48.657418705521	0
3	2503	48.657418705521	1
3	2561	49.657418705521	0
3	2623	50.606517245143	1
3	2624	50.657418705521	0
3	2746	53.126384865361	1
3	2747	53.126384865361	0
3	2773	53.616609712758	1
3	2806	54.126384865361	0
3	2854	54.89264294928	1
3	2859	55.126384865361	0
3	2946	56.470683281595	1
3	2947	56.470683281595	0
3	3021	57.707202491943	1
3	3022	57.707202491943	0
3	3074	58.707202491943	1
3	3075	58.707202491943	0
3	3137	59.707202491943	1
3	3138	59.707202491943	0
3	3193	60.707202491943	1
3	3194	60.707202491943	0
3	3383	64.180768134528	1
3	3384	64.180768134528	0
3	3401	64.257488847373	1
3	3448	65.180768134528	0
3	3566	67.171125964501	1
3	3567	67.171125964501	0
3	3613	68.171125964501	1
3	3614	68.171125964501	0
3	3621	68.207054989088	1
3	3663	69.171125964501	0
3	3733	70.362724757361	1
3	3734	70.362724757361	0
3	3789	71.23223774943	1
3	3790	71.362724757361	0
3	3843	72.227530518174	1
3	3844	72.362724757361	0
3	4041	75.672818396413	1
3	4042	75.672818396413	0
3	4046	75.679231914946	1
3	4093	76.672818396413	0
3	4273	79.656059317888	1
3	4274	79.656059317888	0
3	4323	80.656059317888	1
3	4324	80.656059317888	0
3	4441	82.518856375	1
3	4442	82.518856375	0
3	4445	82.617889354978	1
3	4502	83.518856375	0
3	4513	83.707003371648	1
3	4556	84.518856375	0
3	4567	84.707003371648	1
3	4607	85.518856375	0
3	4663	86.561722344362	1
3	4664	86.561722344362	0
3	4830	89.792293595311	1
3	4831	89.792293595311	0
3	4972	92.639749802337	1
3	4973	92.639749802337	0
3	5023	93.639749802337	1
3	5024	93.639749802337	0
3	5159	96.20271467153	1
3	5160	96.20271467153	0
3	5237	97.89198727292	1
3	5238	97.89198727292	0
3	5481	101.971938175735	1
3	5482	101.971938175735	0
3	5579	103.846267068718	1
3	5580	103.846267068718	0
3	5667	105.174265769459	1
3	5668	105.174265769459	0
3	5723	106.174265769459	1
3	5724	106.174265769459	0
3	5778	107.174265769459	1
3	5779	107.174265769459	0
3	5929	109.823103497939	1
3	5930	109.823103497939	0
3	6043	112.042191716361	1
3	6044	112.042191716361	0
3	6172	114.164603925669	1
3	6173	114.164603925669	0
3	6251	115.475867686131	1
3	6252	115.475867686131	0
3	6274	116.087483068811	1
3	6302	116.475867686131	0
3	6433	119.071149077434	1
3	6434	119.071149077434	0
3	6553	121.331860169255	1
3	6554	121.331860169255	0
3	6615	122.331860169255	1
3	6616	122.331860169255	0
3	6692	123.745968917828	1
3	6693	123.745968917828	0
3	6840	126.586735828998	1
3	6841	126.586735828998	0
3	6892	127.586735828998	1
3	6893	127.586735828998	0
3	6954	128.586735828998	1
3	6955	128.586735828998	0
3	7007	129.586735828998	1
3	7008	129.586735828998	0
3	7099	130.928168559041	1
3	7100	130.928168559041	0
3	7264	133.840298042865	1
3	7265	133.840298042865	0
3	7356	135.602975044504	1
3	7357	135.602975044504	0
3	7381	136.053612076386	1
3	7384	136.086814334046	2
3	7412	136.602975044504	1
3	7423	136.737246369999	2
3	7462	137.235082440259	3
3	7473	137.602975044504	2
3	7522	138.602975044504	1
3	7563	139.002653752325	2
3	7586	139.602975044504	1
3	7625	140.002653752325	2
3	7648	140.602975044504	1
3	7692	141.002653752325	2
3	7695	141.038276313322	3
3	7731	141.602975044504	2
3	7758	142.002653752325	3
3	7789	142.602975044504	2
3	7816	143.002653752325	3
3	7838	143.602975044504	2
3	7901	144.602975044504	1
3	7954	145.357070948718	2
3	7963	145.602975044504	1
3	8015	146.357070948718	2
3	8024	146.602975044504	1
3	8070	146.97936164554	2
3	8098	147.357070948718	3
3	8103	147.602975044504	2
3	8150	148.357070948718	3
3	8158	148.602975044504	2
3	8207	149.357070948718	3
3	8212	149.602975044504	2
3	8259	150.357070948718	3
3	8267	150.602975044504	2
3	8331	151.602975044504	1
3	8350	151.729705037218	2
3	8388	152.602975044504	1
3	8418	153.109938410035	2
3	8441	153.602975044504	1
3	8485	154.602975044504	0
3	8521	155.133854637527	1
3	8538	155.602975044504	0
3	8572	156.17293263581	1
3	8584	156.602975044504	0
3	8724	159.882786411963	1
3	8725	159.882786411963	0
3	8834	161.846213022561	1
3	8835	161.846213022561	0
3	8863	162.699284646634	1
3	8880	162.846213022561	0
3	8906	163.54927461937	1
3	8929	163.846213022561	0
3	9061	166.664782455841	1
3	9062	166.664782455841	0
3	9154	168.349712708572	1
3	9155	168.349712708572	0
3	9168	168.489532782929	1
3	9200	169.056905859098	2
3	9219	169.349712708572	1
3	9230	169.489532782929	2
3	9276	170.349712708572	1
3	9283	170.489532782929	2
3	9323	171.349712708572	1
3	9330	171.489532782929	2
3	9373	172.349712708572	1
3	9383	172.489532782929	2
3	9424	173.349712708572	1
3	9470	174.349712708572	0
3	9666	177.996337691013	1
3	9667	177.996337691013	0
3	9670	178.024430873498	1
3	9673	178.047417373915	2
3	9688	178.194867134919	3
3	9724	178.996337691013	2
3	9742	179.194867134919	3
3	9787	179.996337691013	2
3	9796	180.149290163041	3
3	9808	180.194867134919	4
3	9838	180.996337691013	3
3	9856	181.194867134919	4
3	9894	181.996337691013	3
3	9952	182.996337691013	2
3	9978	183.475221724389	3
3	10021	183.996337691013	2
3	10040	184.313735481492	3
3	10067	184.710114658415	4
3	10084	184.996337691013	3
3	10106	185.313735481492	4
3	10142	185.996337691013	3
3	10148	186.035980413626	4
3	10202	186.996337691013	3
3	10225	187.185728986927	4
3	10232	187.254109324273	5
3	10266	187.996337691013	4
3	10295	188.390450291758	5
3	10336	188.996337691013	4
3	10391	189.996337691013	3
3	10442	190.82107191066	4
3	10451	190.996337691013	3
3	10475	191.497941295822	4
3	10511	191.82107191066	5
3	10521	191.996337691013	4
3	10546	192.434154202292	5
3	10573	192.82107191066	6
3	10582	192.996337691013	5
3	10596	193.159596566844	6
3	10646	193.82107191066	7
3	10651	193.996337691013	6
3	10697	194.82107191066	7
3	10702	194.996337691013	6
3	10757	195.996337691013	5
3	10821	196.996337691013	4
3	10878	197.996337691013	3
3	10927	198.810800504776	4
3	10932	198.996337691013	3
3	10939	199.135104388505	4
3	10989	199.996337691013	3
4	23	1.954012852787	1
4	24	1.954012852787	0
4	106	4.758028108405	1
4	107	4.758028108405	0
4	155	5.758028108405	1
4	156	5.758028108405	0
4	209	6.758028108405	1
4	210	6.758028108405	0
4	251	7.200678801487	1
4	271	7.758028108405	0
4	273	7.758028108405	1
4	328	8.758028108405	0
4	330	8.758028108405	1
4	377	9.758028108405	0
4	379	9.758028108405	1
4	413	10.212247318762	2
4	429	10.758028108405	1
4	431	10.758028108405	2
4	478	11.758028108405	1
4	480	11.758028108405	2
4	526	12.758028108405	1
4	528	12.758028108405	2
4	562	13.422726432885	3
4	583	13.758028108405	2
4	585	13.758028108405	3
4	627	14.758028108405	2
4	629	14.758028108405	3
4	683	15.758028108405	2
4	685	15.758028108405	3
4	727	16.587742541637	4
4	737	16.758028108405	3
4	739	16.758028108405	4
4	794	17.758028108405	3
4	796	17.758028108405	4
4	851	18.758028108405	3
4	853	18.758028108405	4
4	895	19.56425219314	5
4	902	19.758028108405	4
4	904	19.758028108405	5
4	964	20.758028108405	4
4	966	20.758028108405	5
4	1016	21.758028108405	4
4	1018	21.758028108405	5
4	1072	22.758028108405	4
4	1074	22.758028108405	5
4	1116	23.758028108405	4
4	1118	23.758028108405	5
4	1156	24.596931073604	6
4	1163	24.758028108405	5
4	1165	24.758028108405	6
4	1220	25.758028108405	5
4	1222	25.758028108405	6
4	1280	26.758028108405	5
4	1282	26.758028108405	6
4	1339	27.758028108405	5
4	1341	27.758028108405	6
4	1398	28.758028108405	5
4	1400	28.758028108405	6
4	1449	29.758028108405	5
4	1451	29.758028108405	6
4	1500	30.73724167505	7
4	1503	30.758028108405	6
4	1505	30.758028108405	7
4	1557	31.758028108405	6
4	1559	31.758028108405	7
4	1611	32.758028108405	6
4	1613	32.758028108405	7
4	1619	32.885909838601	8
4	1660	33.62109557012	9
4	1667	33.758028108405	8
4	1669	33.758028108405	9
4	1714	34.541123485601	10
4	1725	34.758028108405	9
4	1727	34.758028108405	10
4	1733	34.772742405513	11
4	1776	35.758028108405	10
4	1778	35.758028108405	11
4	1831	36.722946273826	12
4	1834	36.758028108405	11
4	1836	36.758028108405	12
4	1882	37.758028108405	11
4	1884	37.758028108405	12
4	1925	38.758028108405	11
4	1927	38.758028108405	12
4	1979	39.758028108405	11
4	1981	39.758028108405	12
4	2035	40.758028108405	11
4	2037	40.758028108405	12
4	2091	41.758028108405	11
4	2093	41.758028108405	12
4	2148	42.758028108405	11
4	2150	42.758028108405	12
4	2214	43.758028108405	11
4	2216	43.758028108405	12
4	2252	44.353603995959	13
4	2281	44.758028108405	12
4	2283	44.758028108405	13
4	2345	45.758028108405	12
4	2347	45.758028108405	13
4	2405	46.758028108405	12
4	2407	46.758028108405	13
4	2432	47.200773946253	14
4	2463	47.758028108405	13
4	2465	47.758028108405	14
4	2522	48.758028108405	13
4	2524	48.758028108405	14
4	2530	48.855832811826	15
4	2580	49.758028108405	14
4	2582	49.758028108405	15
4	2642	50.758028108405	14
4	2644	50.758028108405	15
4	2682	51.758028108405	14
4	2684	51.758028108405	15
4	2728	52.758028108405	14
4	2730	52.758028108405	15
4	2787	53.758028108405	14
4	2789	53.758028108405	15
4	2840	54.758028108405	14
4	2842	54.758028108405	15
4	2898	55.758028108405	14
4	2900	55.758028108405	15
4	2962	56.758028108405	14
4	2964	56.758028108405	15
4	3025	57.758028108405	14
4	3027	57.758028108405	15
4	3081	58.758028108405	14
4	3083	58.758028108405	15
4	3144	59.758028108405	14
4	3146	59.758028108405	15